# vtk DataFile Version 3.0
mesh
ASCII
DATASET UNSTRUCTURED_GRID
POINTS 447 double
 1.000000000000 0.000000000000 0.000000000000
 1.000000000000 1.000000000000 0.000000000000
 0.000000000000 1.000000000000 0.000000000000
 0.000000000000 0.000000000000 0.000000000000
 0.000000000000 1.000000000000 0.523792986818
 1.000000000000 1.000000000000 1.000000000000
 1.000000000000 0.000000000000 0.356143977106
 0.000000000000 0.000000000000 1.000000000000
 0.000000000000 1.000000000000 1.000000000000
 1.000000000000 0.000000000000 1.000000000000
 0.000000000000 0.666666666667 0.000000000000
 0.000000000000 0.333333333333 0.000000000000
 0.000000000000 0.333333333333 0.174597662273
 0.000000000000 0.666666666667 0.349195324545
 0.000000000000 1.000000000000 0.261896493409
 1.000000000000 0.333333333333 0.000000000000
 1.000000000000 0.666666666667 0.000000000000
 1.000000000000 1.000000000000 0.333333333333
 1.000000000000 1.000000000000 0.666666666667
 1.000000000000 0.666666666667 0.785381325702
 1.000000000000 0.333333333333 0.570762651404
 0.666666666667 0.000000000000 0.237429318071
 0.333333333333 0.000000000000 0.118714659035
 0.333333333333 0.000000000000 0.000000000000
 0.666666666667 0.000000000000 0.000000000000
 0.666666666667 1.000000000000 0.000000000000
 0.333333333333 1.000000000000 0.000000000000
 0.333333333333 1.000000000000 0.682528657879
 0.666666666667 1.000000000000 0.841264328939
 0.000000000000 0.000000000000 0.333333333333
 0.000000000000 0.000000000000 0.666666666667
 0.000000000000 0.333333333333 1.000000000000
 0.000000000000 0.666666666667 1.000000000000
 0.000000000000 1.000000000000 0.761896493409
 1.000000000000 0.666666666667 1.000000000000
 1.000000000000 0.333333333333 1.000000000000
 1.000000000000 0.000000000000 0.678071988553
 0.666666666667 0.000000000000 1.000000000000
 0.333333333333 0.000000000000 1.000000000000
 0.333333333333 1.000000000000 1.000000000000
 0.666666666667 1.000000000000 1.000000000000
 0.000000000000 0.833333333334 0.130948246704
 1.000000000000 0.639331590292 0.351023996184
 1.000000000000 0.281319389005 0.285381325702
 1.000000000000 0.826499564240 0.171089332379
 0.195475088240 1.000000000000 0.290966509439
 0.715739639093 1.000000000000 0.500459121493
 0.792555100671 1.000000000000 0.191531212623
 0.506183860223 1.000000000000 0.277580916906
 0.741533615127 0.297811909283 0.000000000000
 0.525880200557 0.641746132485 0.000000000000
 0.783310647103 0.771981051153 0.000000000000
 0.808924068757 0.544478163015 0.000000000000
 0.447730754778 0.267313826865 0.000000000000
 0.214619122953 0.759045801401 0.000000000000
 0.213882080875 0.486816207852 0.000000000000
 0.205088635644 0.177508705286 0.000000000000
 0.490986901606 0.470358605994 0.458964232745
 0.647068516536 0.646628535717 0.632633534379
 0.292420654997 0.700109609072 0.494210795053
 0.313543350809 0.294012249959 0.289253479682
 0.708975332204 0.275032454932 0.418620175767
 0.000000000000 0.804880282763 0.726888196315
 0.000000000000 0.285727380657 0.504688585707
 0.000000000000 0.218415910744 0.777894151211
 0.000000000000 0.495948373472 0.726444376296
 1.000000000000 0.166666666667 0.839035994276
 0.805047992295 0.000000000000 0.660013772012
 0.496954620433 0.000000000000 0.688437348343
 0.223303405393 0.000000000000 0.764929242965
 0.286709670971 0.000000000000 0.468251761402
 0.297811909283 0.741533615127 1.000000000000
 0.641746132485 0.525880200557 1.000000000000
 0.771981051153 0.783310647103 1.000000000000
 0.544478163015 0.808924068757 1.000000000000
 0.267313826865 0.447730754778 1.000000000000
 0.759045801401 0.214619122953 1.000000000000
 0.486816207852 0.213882080875 1.000000000000
 0.177508705286 0.205088635644 1.000000000000
 0.849643766880 0.420818746090 0.162456244230
 0.849643766880 0.591281235218 0.162456244230
 1.000000000000 0.307326361169 0.142690662851
 1.000000000000 0.460325489649 0.318202660943
 1.000000000000 0.486332461813 0.175511998092
 0.924821883440 0.377076039712 0.081228122115
 0.924821883440 0.530075168191 0.256740120207
 0.924821883440 0.351069067548 0.223918784966
 0.924821883440 0.708890399729 0.166772788305
 0.924821883440 0.615306412755 0.256740120207
 1.000000000000 0.732915577266 0.261056664282
 0.896277550336 0.913249782120 0.181310272501
 0.896277550336 0.819665795146 0.271277604404
 0.821099433776 0.795640617609 0.176993728427
 0.687761983719 0.531282439287 0.081228122115
 0.486805477668 0.454529979675 0.000000000000
 0.648687260829 0.344066286477 0.081228122115
 0.670315334243 0.445588676042 0.310710238488
 0.469358828192 0.368836216429 0.229482116372
 0.508433551082 0.556052369239 0.229482116372
 0.833333333333 1.000000000000 0.000000000000
 0.724988656885 0.885990525576 0.000000000000
 0.891655323551 0.885990525576 0.000000000000
 0.896277550336 1.000000000000 0.095765606311
 0.787932873887 0.885990525576 0.095765606311
 0.729610883669 1.000000000000 0.095765606311
 0.633706907842 0.469779020884 0.000000000000
 0.594632184952 0.282562868074 0.000000000000
 0.795588691003 0.359315327686 0.081228122115
 0.833333333333 0.140659694503 0.261405321886
 0.758155216773 0.210409373045 0.199942781150
 0.687820999435 0.137516227466 0.328024746919
 0.779309549542 0.347925600511 0.290538209999
 0.854487666102 0.278175921969 0.352000750735
 0.107309561477 0.712856234034 0.000000000000
 0.106941040438 0.576741437260 0.000000000000
 0.214250601914 0.622931004627 0.000000000000
 0.107309561477 0.712856234034 0.174597662273
 0.106941040438 0.576741437260 0.174597662273
 0.000000000000 0.666666666667 0.174597662273
 0.360401491588 0.879522900700 0.138790458453
 0.273976228143 0.879522900700 0.000000000000
 0.419758596778 1.000000000000 0.138790458453
 0.516032030390 0.820873066243 0.138790458453
 0.429606766945 0.820873066243 0.000000000000
 0.370249661755 0.700395966943 0.000000000000
 0.323438342071 0.147006124979 0.203984069358
 0.269210984489 0.088754352643 0.059357329518
 0.259315993226 0.235760477623 0.144626739841
 0.380637052793 0.280663038412 0.144626739841
 0.326409695211 0.222411266076 0.000000000000
 0.390532044056 0.133656913432 0.059357329518
 0.333333333333 0.000000000000 0.059357329518
 0.269210984489 0.088754352643 0.000000000000
 0.390532044056 0.133656913432 0.000000000000
 0.399302257610 0.850054804536 0.385895855979
 0.253519888975 0.729577705236 0.247105397527
 0.409150427777 0.670927870778 0.247105397527
 0.263712715842 0.390414228906 0.144626739841
 0.209485358260 0.332162456569 0.000000000000
 0.330806417827 0.377065017359 0.000000000000
 0.500000000000 0.000000000000 0.059357329518
 0.557198710722 0.133656913432 0.000000000000
 0.500000000000 0.000000000000 0.000000000000
 0.578353043491 0.271173140898 0.209310087884
 0.599981116905 0.372695530463 0.438792204256
 0.253151367936 0.593462908462 0.247105397527
 0.146210327498 0.683388137869 0.421703059799
 0.369881140716 0.564281170169 0.000000000000
 0.833333333333 1.000000000000 0.753965497803
 1.000000000000 0.833333333333 0.726023996184
 0.833333333333 0.833333333333 0.813322827321
 0.656867591602 0.823314267859 0.736948931659
 0.823534258268 0.656647601192 0.709007430041
 0.823534258268 0.823314267859 0.649650100523
 0.924821883440 0.543742706378 0.081228122115
 1.000000000000 0.652999128480 0.175511998092
 0.924821883440 0.628973950942 0.081228122115
 0.849643766880 0.506049990654 0.162456244230
 1.000000000000 0.140659694503 0.320762651404
 0.833333333333 0.000000000000 0.296786647588
 1.000000000000 0.140659694503 0.142690662851
 0.833333333333 0.000000000000 0.118714659035
 1.000000000000 0.000000000000 0.178071988553
 0.107309561477 0.796189567367 0.065474123352
 0.000000000000 0.750000000000 0.065474123352
 0.000000000000 0.750000000000 0.240071785625
 0.904462034379 0.605572414841 0.000000000000
 0.829283917819 0.567879699117 0.081228122115
 0.829283917819 0.482648454553 0.081228122115
 0.106941040438 0.410074770593 0.000000000000
 0.102544317822 0.255421019310 0.000000000000
 0.106941040438 0.410074770593 0.087298831136
 0.102544317822 0.255421019310 0.087298831136
 0.000000000000 0.333333333333 0.087298831136
 0.205047105597 0.879522900700 0.145483254719
 0.097737544120 0.916666666667 0.210957378072
 0.097737544120 0.833333333333 0.320080916992
 0.243947871618 0.850054804536 0.392588652246
 0.870766807563 0.289565649144 0.142690662851
 0.704100140897 0.148905954642 0.118714659035
 0.870766807563 0.148905954642 0.000000000000
 1.000000000000 0.913249782120 0.085544666190
 0.891655323551 0.799240307696 0.085544666190
 1.000000000000 0.833333333333 0.000000000000
 0.891655323551 0.719323858910 0.000000000000
 1.000000000000 0.746583115453 0.085544666190
 0.644747253663 0.885990525576 0.138790458453
 0.677913813551 0.795640617609 0.220018580568
 0.816477206991 0.681631143185 0.081228122115
 0.649369480447 1.000000000000 0.234556064764
 0.725254473665 0.286422182108 0.209310087884
 0.823534258268 0.642980063005 0.491828765282
 1.000000000000 0.652999128480 0.568202660943
 1.000000000000 0.819665795146 0.508845331425
 0.097737544120 1.000000000000 0.276431501424
 0.000000000000 0.833333333333 0.305545908977
 0.097737544120 1.000000000000 0.407379748128
 0.000000000000 0.833333333333 0.436494155682
 0.000000000000 1.000000000000 0.392844740114
 0.654595423830 0.706863591819 0.000000000000
 0.687761983719 0.616513683852 0.081228122115
 0.146210327498 0.850054804536 0.509001890936
 0.166666666667 0.916666666667 0.065474123352
 0.166666666667 1.000000000000 0.000000000000
 0.000000000000 0.916666666667 0.065474123352
 0.107309561477 0.879522900700 0.000000000000
 0.000000000000 0.916666666667 0.196422370057
 1.000000000000 0.913249782120 0.252211332856
 0.896277550336 1.000000000000 0.262432272978
 1.000000000000 0.819665795146 0.342178664759
 0.156771675404 0.313672791646 0.231925570977
 0.156771675404 0.480339458313 0.319224402113
 0.000000000000 0.500000000000 0.261896493409
 0.166666666667 0.166666666667 0.146656160654
 0.102544317822 0.088754352643 0.000000000000
[...]
CELL_DATA 214
SCALARS poly double
LOOKUP_TABLE default
1.000000
1.000000
1.000000
1.000000
1.000000
1.000000
1.000000
1.000000
1.000000
1.000000
1.000000
1.000000
1.000000
1.000000
1.000000
1.000000
1.000000
1.000000
1.000000
1.000000
1.000000
1.000000
1.000000
1.000000
1.000000
1.000000
1.000000
1.000000
1.000000
1.000000
1.000000
1.000000
1.000000
1.000000
1.000000
1.000000
1.000000
1.000000
1.000000
1.000000
1.000000
1.000000
1.000000
1.000000
1.000000
1.000000
1.000000
1.000000
1.000000
1.000000
1.000000
1.000000
1.000000
1.000000
1.000000
1.000000
1.000000
1.000000
1.000000
1.000000
1.000000
1.000000
1.000000
1.000000
1.000000
1.000000
1.000000
1.000000
1.000000
1.000000
1.000000
1.000000
1.000000
1.000000
1.000000
1.000000
1.000000
1.000000
1.000000
1.000000
1.000000
1.000000
1.000000
1.000000
1.000000
1.000000
1.000000
1.000000
1.000000
1.000000
1.000000
1.000000
1.000000
1.000000
1.000000
1.000000
1.000000
1.000000
1.000000
1.000000
1.000000
1.000000
1.000000
1.000000
1.000000
1.000000
1.000000
1.000000
1.000000
1.000000
1.000000
2.000000
2.000000
2.000000
2.000000
2.000000
2.000000
2.000000
2.000000
2.000000
2.000000
2.000000
2.000000
2.000000
2.000000
2.000000
2.000000
2.000000
2.000000
2.000000
2.000000
2.000000
2.000000
2.000000
2.000000
2.000000
2.000000
2.000000
2.000000
2.000000
2.000000
2.000000
2.000000
2.000000
2.000000
2.000000
2.000000
2.000000
2.000000
2.000000
2.000000
2.000000
2.000000
2.000000
2.000000
2.000000
2.000000
2.000000
2.000000
2.000000
2.000000
2.000000
2.000000
2.000000
2.000000
2.000000
2.000000
2.000000
2.000000
2.000000
2.000000
2.000000
2.000000
2.000000
2.000000
2.000000
2.000000
2.000000
2.000000
2.000000
2.000000
2.000000
2.000000
2.000000
2.000000
2.000000
2.000000
2.000000
2.000000
2.000000
2.000000
2.000000
2.000000
2.000000
2.000000
2.000000
2.000000
2.000000
2.000000
2.000000
2.000000
2.000000
2.000000
2.000000
2.000000
2.000000
2.000000
2.000000
2.000000
2.000000
2.000000
2.000000
2.000000
2.000000
