# vtk DataFile Version 3.0
mesh
ASCII
DATASET UNSTRUCTURED_GRID
POINTS 550 double
 0.000000000000 0.000000000000 0.000000000000
 1.000000000000 0.000000000000 0.000000000000
 1.000000000000 1.000000000000 0.000000000000
 0.000000000000 1.000000000000 0.000000000000
 0.000000000000 0.000000000000 1.000000000000
 0.000000000000 1.000000000000 1.000000000000
 1.000000000000 1.000000000000 1.000000000000
 1.000000000000 0.000000000000 1.000000000000
 0.000000000000 0.000000000000 2.000000000000
 0.000000000000 1.000000000000 2.000000000000
 1.000000000000 1.000000000000 2.000000000000
 1.000000000000 0.000000000000 2.000000000000
 0.000000000000 0.500000000000 0.000000000000
 0.000000000000 0.000000000000 0.500000000000
 0.000000000000 0.500000000000 1.000000000000
 0.000000000000 1.000000000000 0.500000000000
 1.000000000000 0.500000000000 0.000000000000
 1.000000000000 1.000000000000 0.500000000000
 1.000000000000 0.500000000000 1.000000000000
 1.000000000000 0.000000000000 0.500000000000
 0.500000000000 0.000000000000 0.000000000000
 0.500000000000 0.000000000000 1.000000000000
 0.500000000000 1.000000000000 0.000000000000
 0.500000000000 1.000000000000 1.000000000000
 0.000000000000 0.500000000000 2.000000000000
 0.000000000000 1.000000000000 1.500000000000
 0.000000000000 0.000000000000 1.500000000000
 1.000000000000 0.500000000000 2.000000000000
 1.000000000000 0.000000000000 1.500000000000
 1.000000000000 1.000000000000 1.500000000000
 0.500000000000 0.000000000000 2.000000000000
 0.500000000000 1.000000000000 2.000000000000
 0.000000000000 0.344444444444 0.672222222222
 0.000000000000 0.750000000000 0.750000000000
 0.000000000000 0.652222222222 0.367777777778
 0.000000000000 0.318888888889 0.284444444444
 1.000000000000 0.750000000000 0.250000000000
 1.000000000000 0.625000000000 0.625000000000
 1.000000000000 0.281250000000 0.718750000000
 1.000000000000 0.345703125000 0.345703125000
 0.750000000000 0.000000000000 0.250000000000
 0.625000000000 0.000000000000 0.625000000000
 0.281250000000 0.000000000000 0.718750000000
 0.345703125000 0.000000000000 0.345703125000
 0.344444444444 1.000000000000 0.672222222222
 0.750000000000 1.000000000000 0.750000000000
 0.652222222222 1.000000000000 0.367777777778
 0.318888888889 1.000000000000 0.284444444444
 0.655555555556 0.327777777778 0.000000000000
 0.250000000000 0.250000000000 0.000000000000
 0.347777777778 0.632222222222 0.000000000000
 0.681111111111 0.715555555556 0.000000000000
 0.250000000000 0.750000000000 1.000000000000
 0.625000000000 0.625000000000 1.000000000000
 0.718750000000 0.281250000000 1.000000000000
 0.345703125000 0.345703125000 1.000000000000
 0.000000000000 0.650000000000 1.333333333333
 0.000000000000 0.250000000000 1.250000000000
 0.000000000000 0.355555555556 1.625000000000
 0.000000000000 0.733333333333 1.666666666667
 1.000000000000 0.750000000000 1.750000000000
 1.000000000000 0.375000000000 1.625000000000
 1.000000000000 0.281250000000 1.281250000000
 1.000000000000 0.654296875000 1.345703125000
 0.750000000000 0.000000000000 1.750000000000
 0.375000000000 0.000000000000 1.625000000000
 0.281250000000 0.000000000000 1.281250000000
 0.654296875000 0.000000000000 1.345703125000
 0.650000000000 1.000000000000 1.333333333333
 0.250000000000 1.000000000000 1.250000000000
 0.355555555556 1.000000000000 1.625000000000
 0.733333333333 1.000000000000 1.666666666667
 0.327777777778 0.655555555556 2.000000000000
 0.250000000000 0.250000000000 2.000000000000
 0.632222222222 0.347777777778 2.000000000000
 0.715555555556 0.681111111111 2.000000000000
 0.423487484455 0.676512479782 0.588612556458
 0.764412522316 0.676512479782 0.588612556458
 0.423487484455 0.335587501526 0.588612556458
 0.423487484455 0.676512479782 0.247687503695
 0.423487484455 0.335587501526 0.247687503695
 0.764412522316 0.335587501526 0.247687503695
 0.764412522316 0.676512479782 0.247687503695
 0.764412522316 0.335587501526 0.588612556458
 0.423487484455 0.335587501526 1.247687458992
 0.764412522316 0.335587501526 1.247687458992
 0.423487484455 0.676512479782 1.247687458992
 0.423487484455 0.335587501526 1.588612437248
 0.423487484455 0.676512479782 1.588612437248
 0.764412522316 0.676512479782 1.588612437248
 0.764412522316 0.335587501526 1.588612437248
 0.764412522316 0.676512479782 1.247687458992
 0.000000000000 0.172222222222 0.586111111111
 0.000000000000 0.159444444444 0.392222222222
 0.000000000000 0.331666666667 0.478333333333
 0.211743742228 0.340015972985 0.630417389340
 0.211743742228 0.327238195207 0.436528500451
 0.211743742228 0.167793750763 0.544306278229
 0.125000000000 0.284444444444 0.142222222222
 0.000000000000 0.409444444444 0.142222222222
 0.125000000000 0.375000000000 0.000000000000
 0.125000000000 0.125000000000 0.000000000000
 0.000000000000 0.250000000000 0.000000000000
 0.000000000000 0.159444444444 0.142222222222
 0.708317372269 0.838256239891 0.307732640737
 0.708317372269 0.838256239891 0.478195167118
 0.764412522316 0.676512479782 0.418150030077
 0.882206261158 0.838256239891 0.373843751848
 0.882206261158 0.838256239891 0.544306278229
 0.826111111111 1.000000000000 0.433888888889
 0.537854853339 0.838256239891 0.307732640737
 0.576111111111 1.000000000000 0.183888888889
 0.461743742228 0.838256239891 0.123843751848
 0.371188186672 0.838256239891 0.266065974070
 0.409444444444 1.000000000000 0.142222222222
 0.485555555556 1.000000000000 0.326111111111
 0.764412522316 0.506049990654 0.588612556458
 0.593950003386 0.506049990654 0.588612556458
 0.593950003386 0.335587501526 0.588612556458
 0.694706261158 0.480293750763 0.794306278229
 0.524243742228 0.480293750763 0.794306278229
 0.694706261158 0.650756239891 0.794306278229
 0.609375000000 0.140625000000 1.000000000000
 0.422851562500 0.172851562500 1.000000000000
 0.532226562500 0.313476562500 1.000000000000
 0.571118742228 0.308418750763 0.794306278229
 0.384595304728 0.340645313263 0.794306278229
 0.461743742228 0.167793750763 0.794306278229
 0.671875000000 0.140625000000 0.812500000000
 0.741581261158 0.308418750763 0.794306278229
 0.694706261158 0.167793750763 0.606806278229
 0.524243742228 0.167793750763 0.606806278229
 0.586743742228 0.838256239891 0.669306278229
 0.524243742228 0.650756239891 0.794306278229
 0.687500000000 0.812500000000 0.875000000000
 0.625000000000 1.000000000000 0.875000000000
 0.562500000000 0.812500000000 1.000000000000
 0.461743742228 0.838256239891 0.794306278229
 0.211743742228 0.497700684335 0.266065974070
 0.385632631116 0.654367351002 0.123843751848
 0.173888888889 0.475555555556 0.142222222222
 0.173888888889 0.566111111111 0.000000000000
 0.211743742228 0.588256239891 0.123843751848
 0.452777777778 0.288888888889 0.000000000000
 0.501666666667 0.480000000000 0.000000000000
 0.298888888889 0.441111111111 0.000000000000
 0.336743742228 0.292793750763 0.123843751848
 0.385632631116 0.483904861874 0.123843751848
 0.539521520005 0.331682639652 0.123843751848
 1.000000000000 0.140625000000 0.609375000000
 1.000000000000 0.000000000000 0.750000000000
 1.000000000000 0.140625000000 0.859375000000
 0.812500000000 0.140625000000 0.671875000000
 0.812500000000 0.000000000000 0.812500000000
 0.812500000000 0.000000000000 0.562500000000
 0.552299297783 0.696034017669 0.123843751848
 0.590555555556 0.857777777778 0.000000000000
 0.514444444444 0.673888888889 0.000000000000
 0.423888888889 0.816111111111 0.000000000000
 0.423487484455 0.506049990654 0.247687503695
 0.211743742228 0.327238195207 0.266065974070
 0.211743742228 0.510478462113 0.630417389340
 0.172851562500 0.345073784722 0.836111111111
 0.384595304728 0.511107802391 0.794306278229
 0.336743742228 0.713256239891 0.794306278229
 0.297851562500 0.547851562500 1.000000000000
 0.125000000000 0.547222222222 0.836111111111
 0.485351562500 0.485351562500 1.000000000000
 0.671875000000 0.453125000000 1.000000000000
 0.859375000000 0.390625000000 1.000000000000
 0.812500000000 0.562500000000 1.000000000000
 0.882206261158 0.417793750763 0.794306278229
 0.375000000000 0.125000000000 0.000000000000
 0.577777777778 0.163888888889 0.000000000000
 0.461743742228 0.167793750763 0.123843751848
 0.211743742228 0.417793750763 0.123843751848
 0.547851562500 0.000000000000 0.297851562500
 0.625000000000 0.000000000000 0.125000000000
 0.422851562500 0.000000000000 0.172851562500
 0.384595304728 0.167793750763 0.296695314348
 0.586743742228 0.167793750763 0.248843751848
 0.722761816714 0.696034017669 0.123843751848
 0.840555555556 0.732777777778 0.125000000000
 0.882206261158 0.713256239891 0.248843751848
 0.882206261158 0.588256239891 0.123843751848
 1.000000000000 0.625000000000 0.125000000000
 0.840555555556 0.607777777778 0.000000000000
 0.702777777778 0.163888888889 0.125000000000
 0.882206261158 0.650756239891 0.436343751848
 1.000000000000 0.485351562500 0.485351562500
 0.882206261158 0.511107802391 0.296695314348
 1.000000000000 0.547851562500 0.297851562500
 1.000000000000 0.687500000000 0.437500000000
 0.547222222222 1.000000000000 0.711111111111
 0.383965964450 0.838256239891 0.630417389340
 0.422222222222 1.000000000000 0.836111111111
 0.882206261158 0.511107802391 0.467157840729
 0.882206261158 0.340645313263 0.467157840729
 0.764412522316 0.335587501526 0.418150030077
 0.882206261158 0.340645313263 0.296695314348
 0.764412522316 0.506049990654 0.418150030077
 1.000000000000 0.390625000000 0.859375000000
 0.859375000000 0.281250000000 0.859375000000
 0.882206261158 0.308418750763 0.653681278229
 0.882206261158 0.650756239891 0.606806278229
 0.882206261158 0.480293750763 0.606806278229
 0.875000000000 0.812500000000 0.687500000000
 1.000000000000 0.812500000000 0.562500000000
 0.875000000000 1.000000000000 0.625000000000
 0.875000000000 1.000000000000 0.875000000000
 1.000000000000 1.000000000000 0.750000000000
 1.000000000000 0.812500000000 0.812500000000
 0.882206261158 0.167793750763 0.544306278229
 1.000000000000 0.313476562500 0.532226562500
 1.000000000000 0.172851562500 0.422851562500
[...]
CELL_DATA 297
SCALARS poly double
LOOKUP_TABLE default
1.000000
1.000000
1.000000
1.000000
1.000000
1.000000
1.000000
1.000000
1.000000
1.000000
1.000000
1.000000
1.000000
1.000000
1.000000
1.000000
1.000000
1.000000
1.000000
1.000000
1.000000
1.000000
1.000000
1.000000
1.000000
1.000000
1.000000
1.000000
1.000000
1.000000
1.000000
1.000000
1.000000
1.000000
1.000000
1.000000
1.000000
1.000000
1.000000
1.000000
1.000000
1.000000
1.000000
1.000000
1.000000
1.000000
1.000000
1.000000
1.000000
1.000000
1.000000
1.000000
1.000000
1.000000
1.000000
1.000000
1.000000
1.000000
1.000000
1.000000
1.000000
1.000000
1.000000
1.000000
1.000000
1.000000
1.000000
1.000000
1.000000
1.000000
1.000000
1.000000
1.000000
1.000000
1.000000
1.000000
1.000000
1.000000
1.000000
1.000000
1.000000
1.000000
1.000000
1.000000
1.000000
1.000000
1.000000
1.000000
1.000000
1.000000
1.000000
1.000000
1.000000
1.000000
1.000000
1.000000
1.000000
1.000000
1.000000
1.000000
1.000000
1.000000
1.000000
1.000000
1.000000
1.000000
1.000000
1.000000
1.000000
1.000000
1.000000
1.000000
1.000000
1.000000
1.000000
1.000000
1.000000
1.000000
1.000000
1.000000
1.000000
1.000000
1.000000
1.000000
1.000000
1.000000
1.000000
1.000000
1.000000
1.000000
1.000000
1.000000
1.000000
1.000000
1.000000
1.000000
1.000000
1.000000
1.000000
1.000000
1.000000
1.000000
1.000000
1.000000
1.000000
1.000000
1.000000
1.000000
1.000000
1.000000
2.000000
2.000000
2.000000
2.000000
2.000000
2.000000
2.000000
2.000000
2.000000
2.000000
2.000000
2.000000
2.000000
2.000000
2.000000
2.000000
2.000000
2.000000
2.000000
2.000000
2.000000
2.000000
2.000000
2.000000
2.000000
2.000000
2.000000
2.000000
2.000000
2.000000
2.000000
2.000000
2.000000
2.000000
2.000000
2.000000
2.000000
2.000000
2.000000
2.000000
2.000000
2.000000
2.000000
2.000000
2.000000
2.000000
2.000000
2.000000
2.000000
2.000000
2.000000
2.000000
2.000000
2.000000
2.000000
2.000000
2.000000
2.000000
2.000000
2.000000
2.000000
2.000000
2.000000
2.000000
2.000000
2.000000
2.000000
2.000000
2.000000
2.000000
2.000000
2.000000
2.000000
2.000000
2.000000
2.000000
2.000000
2.000000
2.000000
2.000000
2.000000
2.000000
2.000000
2.000000
2.000000
2.000000
2.000000
2.000000
2.000000
2.000000
2.000000
2.000000
2.000000
2.000000
2.000000
2.000000
2.000000
2.000000
2.000000
2.000000
2.000000
2.000000
2.000000
2.000000
2.000000
2.000000
2.000000
2.000000
2.000000
2.000000
2.000000
2.000000
2.000000
2.000000
2.000000
2.000000
2.000000
2.000000
2.000000
2.000000
2.000000
2.000000
2.000000
2.000000
2.000000
2.000000
2.000000
2.000000
2.000000
2.000000
2.000000
2.000000
2.000000
2.000000
2.000000
2.000000
2.000000
2.000000
2.000000
2.000000
2.000000
2.000000
2.000000
2.000000
2.000000
2.000000
2.000000
